<?xml version="1.0"?>
<VTKFile type="UnstructuredGrid" version="0.1" byte_order="LittleEndian">
 <UnstructuredGrid>
<Piece NumberOfPoints="     517" NumberOfCells="    2304">
 <Points>
<DataArray type="Float32" NumberOfComponents="3" format="ascii">
   18.00000      -41.00000      0.6000000    
   20.00000      -41.00000      0.6000000    
   20.00000      -38.50000      0.6000000    
   18.00000      -38.50000      0.6000000    
   18.00000      -41.00000       3.300000    
   20.00000      -41.00000       3.300000    
   20.00000      -38.50000       3.300000    
   18.00000      -38.50000       3.300000    
   22.00000      -41.00000      0.6000000    
   22.00000      -38.50000      0.6000000    
   22.00000      -41.00000       3.300000    
   22.00000      -38.50000       3.300000    
   24.00000      -41.00000      0.6000000    
   24.00000      -38.50000      0.6000000    
   24.00000      -41.00000       3.300000    
   24.00000      -38.50000       3.300000    
   19.00000      -39.75000       1.950000    
   21.00000      -39.75000       1.950000    
   23.00000      -39.75000       1.950000    
   20.00000      -39.75000       1.950000    
   19.00000      -39.75000      0.6000000    
   19.00000      -38.50000       1.950000    
   18.00000      -39.75000       1.950000    
   19.00000      -41.00000       1.950000    
   19.00000      -39.75000       3.300000    
   21.00000      -39.75000      0.6000000    
   22.00000      -39.75000       1.950000    
   21.00000      -38.50000       1.950000    
   21.00000      -41.00000       1.950000    
   21.00000      -39.75000       3.300000    
   23.00000      -39.75000      0.6000000    
   24.00000      -39.75000       1.950000    
   23.00000      -38.50000       1.950000    
   23.00000      -41.00000       1.950000    
   23.00000      -39.75000       3.300000    
   20.00000      -39.75000      0.6000000    
   20.00000      -38.50000       1.950000    
   19.00000      -41.00000      0.6000000    
   19.00000      -38.50000      0.6000000    
   18.00000      -39.75000      0.6000000    
   18.00000      -38.50000       1.950000    
   19.00000      -38.50000       3.300000    
   20.00000      -41.00000       1.950000    
   20.00000      -39.75000       3.300000    
   18.00000      -41.00000       1.950000    
   19.00000      -41.00000       3.300000    
   18.00000      -39.75000       3.300000    
   22.00000      -39.75000      0.6000000    
   21.00000      -41.00000      0.6000000    
   22.00000      -38.50000       1.950000    
   21.00000      -38.50000      0.6000000    
   21.00000      -38.50000       3.300000    
   22.00000      -41.00000       1.950000    
   22.00000      -39.75000       3.300000    
   21.00000      -41.00000       3.300000    
   24.00000      -39.75000      0.6000000    
   23.00000      -41.00000      0.6000000    
   24.00000      -38.50000       1.950000    
   23.00000      -38.50000      0.6000000    
   23.00000      -38.50000       3.300000    
   24.00000      -41.00000       1.950000    
   24.00000      -39.75000       3.300000    
   23.00000      -41.00000       3.300000    
   19.50000      -39.12500       1.275000    
   19.50000      -40.37500       1.275000    
   19.50000      -39.12500       2.625000    
   18.50000      -40.37500       1.275000    
   18.50000      -39.12500       1.275000    
   18.50000      -39.12500       2.625000    
   19.50000      -40.37500       2.625000    
   18.50000      -40.37500       2.625000    
   21.50000      -40.37500       1.275000    
   21.50000      -39.12500       1.275000    
   20.50000      -40.37500       1.275000    
   21.50000      -39.12500       2.625000    
   20.50000      -39.12500       1.275000    
   20.50000      -39.12500       2.625000    
   21.50000      -40.37500       2.625000    
   20.50000      -40.37500       2.625000    
   23.50000      -40.37500       1.275000    
   23.50000      -39.12500       1.275000    
   22.50000      -40.37500       1.275000    
   23.50000      -39.12500       2.625000    
   22.50000      -39.12500       1.275000    
   22.50000      -39.12500       2.625000    
   23.50000      -40.37500       2.625000    
   22.50000      -40.37500       2.625000    
   19.50000      -39.75000       1.275000    
   20.00000      -39.12500       1.275000    
   20.00000      -40.37500       1.275000    
   20.00000      -39.12500       2.625000    
   19.50000      -39.12500       1.950000    
   19.00000      -40.37500       1.275000    
   18.50000      -40.37500      0.6000000    
   19.50000      -40.37500      0.6000000    
   19.50000      -39.12500      0.6000000    
   19.00000      -39.12500       1.275000    
   19.50000      -38.50000       1.275000    
   18.50000      -38.50000       1.275000    
   19.50000      -38.50000       2.625000    
   18.50000      -39.12500      0.6000000    
   18.50000      -39.75000       1.275000    
   18.50000      -38.50000       2.625000    
   18.50000      -39.12500       1.950000    
   19.00000      -39.12500       2.625000    
   18.00000      -39.12500       1.275000    
   18.00000      -39.12500       2.625000    
   18.00000      -40.37500       1.275000    
   19.50000      -40.37500       1.950000    
   20.00000      -40.37500       2.625000    
   19.50000      -39.75000       2.625000    
   19.50000      -41.00000       1.275000    
   18.50000      -41.00000       1.275000    
   19.50000      -41.00000       2.625000    
   18.50000      -40.37500       1.950000    
   18.50000      -41.00000       2.625000    
   19.00000      -40.37500       2.625000    
   19.50000      -39.12500       3.300000    
   19.50000      -40.37500       3.300000    
   18.50000      -40.37500       3.300000    
   18.50000      -39.75000       2.625000    
   18.00000      -40.37500       2.625000    
   18.50000      -39.12500       3.300000    
   21.50000      -40.37500      0.6000000    
   21.50000      -39.75000       1.275000    
   21.50000      -39.12500      0.6000000    
   20.50000      -40.37500      0.6000000    
   21.00000      -40.37500       1.275000    
   21.50000      -39.12500       1.950000    
   22.00000      -39.12500       2.625000    
   22.00000      -39.12500       1.275000    
   22.00000      -40.37500       1.275000    
   21.00000      -39.12500       1.275000    
   20.50000      -39.12500      0.6000000    
   20.50000      -39.75000       1.275000    
   21.50000      -38.50000       1.275000    
   20.50000      -38.50000       1.275000    
   21.50000      -38.50000       2.625000    
   20.50000      -39.12500       1.950000    
   20.50000      -38.50000       2.625000    
   21.00000      -39.12500       2.625000    
   21.50000      -40.37500       1.950000    
   21.50000      -41.00000       2.625000    
   21.50000      -41.00000       1.275000    
   20.50000      -41.00000       1.275000    
   22.00000      -40.37500       2.625000    
   21.50000      -39.75000       2.625000    
   21.50000      -40.37500       3.300000    
   21.00000      -40.37500       2.625000    
   20.50000      -40.37500       3.300000    
   21.50000      -39.12500       3.300000    
   20.50000      -41.00000       2.625000    
   20.50000      -40.37500       1.950000    
   20.50000      -39.75000       2.625000    
   20.50000      -39.12500       3.300000    
   23.50000      -40.37500      0.6000000    
   23.50000      -39.75000       1.275000    
   23.50000      -39.12500      0.6000000    
   22.50000      -40.37500      0.6000000    
   23.00000      -40.37500       1.275000    
   23.50000      -39.12500       1.950000    
   24.00000      -39.12500       2.625000    
   24.00000      -39.12500       1.275000    
   24.00000      -40.37500       1.275000    
   23.00000      -39.12500       1.275000    
   22.50000      -39.12500      0.6000000    
   22.50000      -39.75000       1.275000    
   23.50000      -38.50000       1.275000    
   22.50000      -38.50000       1.275000    
   23.50000      -38.50000       2.625000    
   22.50000      -39.12500       1.950000    
   22.50000      -38.50000       2.625000    
   23.00000      -39.12500       2.625000    
   23.50000      -40.37500       1.950000    
   23.50000      -41.00000       2.625000    
   23.50000      -41.00000       1.275000    
   22.50000      -41.00000       1.275000    
   24.00000      -40.37500       2.625000    
   23.50000      -39.75000       2.625000    
   23.50000      -40.37500       3.300000    
   23.00000      -40.37500       2.625000    
   22.50000      -40.37500       3.300000    
   23.50000      -39.12500       3.300000    
   22.50000      -41.00000       2.625000    
   22.50000      -40.37500       1.950000    
   22.50000      -39.75000       2.625000    
   22.50000      -39.12500       3.300000    
   20.00000      -39.75000       1.275000    
   19.50000      -39.75000       1.950000    
   20.00000      -39.12500      0.6000000    
   20.00000      -40.37500      0.6000000    
   20.00000      -39.12500       1.950000    
   20.00000      -38.50000       2.625000    
   20.00000      -38.50000       1.275000    
   19.00000      -40.37500      0.6000000    
   19.00000      -39.75000       1.275000    
   18.50000      -41.00000      0.6000000    
   19.50000      -41.00000      0.6000000    
   19.50000      -39.75000      0.6000000    
   19.00000      -38.50000       1.275000    
   19.00000      -39.12500       1.950000    
   19.50000      -38.50000      0.6000000    
   18.50000      -38.50000      0.6000000    
   19.50000      -38.50000       1.950000    
   18.00000      -39.12500      0.6000000    
   18.50000      -39.75000      0.6000000    
   18.00000      -40.37500      0.6000000    
   19.00000      -39.12500      0.6000000    
   18.00000      -38.50000       2.625000    
   18.50000      -38.50000       1.950000    
   18.00000      -38.50000       1.275000    
[...]
 <PointData>
<DataArray type="Float32" Name="velocity" NumberOfComponents="3" format="ascii">
  0.0000000E+00  0.0000000E+00  0.2878298E-06
  0.0000000E+00  0.0000000E+00  0.2890335E-06
  0.0000000E+00  0.0000000E+00 -0.6870912E-06
  0.0000000E+00  0.0000000E+00  0.1343323E-06
  0.0000000E+00  0.0000000E+00 -0.6511721E-06
  0.0000000E+00  0.0000000E+00 -0.3206049E-06
  0.0000000E+00  0.0000000E+00 -0.2456828E-05
  0.0000000E+00  0.0000000E+00  0.1172431E-06
  0.0000000E+00  0.0000000E+00 -0.4647167E-06
  0.0000000E+00  0.0000000E+00  0.1590125E-05
  0.0000000E+00  0.0000000E+00  0.1616129E-05
  0.0000000E+00  0.0000000E+00 -0.7437696E-05
  0.0000000E+00  0.0000000E+00 -0.1731493E-06
  0.0000000E+00  0.0000000E+00  0.9011121E-07
  0.0000000E+00  0.0000000E+00 -0.8061327E-07
  0.0000000E+00  0.0000000E+00  0.1684164E-05
  0.0000000E+00  0.0000000E+00  0.7316895E-05
  0.0000000E+00  0.0000000E+00 -0.2264075E-05
  0.0000000E+00  0.0000000E+00  0.4341298E-05
  0.0000000E+00  0.0000000E+00 -0.5348497E-05
  0.0000000E+00  0.0000000E+00  0.4226932E-06
  0.0000000E+00  0.0000000E+00  0.1778486E-05
  0.0000000E+00  0.0000000E+00 -0.1232107E-04
  0.0000000E+00  0.0000000E+00  0.2010804E-05
  0.0000000E+00  0.0000000E+00  0.1421110E-04
  0.0000000E+00  0.0000000E+00 -0.1125068E-05
  0.0000000E+00  0.0000000E+00 -0.1209798E-05
  0.0000000E+00  0.0000000E+00 -0.2157002E-05
  0.0000000E+00  0.0000000E+00 -0.1201897E-05
  0.0000000E+00  0.0000000E+00 -0.3403081E-05
  0.0000000E+00  0.0000000E+00  0.1142588E-05
  0.0000000E+00  0.0000000E+00  0.3159608E-05
  0.0000000E+00  0.0000000E+00 -0.6971030E-06
  0.0000000E+00  0.0000000E+00  0.3328654E-05
  0.0000000E+00  0.0000000E+00  0.7540008E-05
  0.0000000E+00  0.0000000E+00 -0.1594893E-05
  0.0000000E+00  0.0000000E+00 -0.1571960E-05
  0.0000000E+00  0.0000000E+00  0.5257336E-06
  0.0000000E+00  0.0000000E+00  0.6677502E-06
  0.0000000E+00  0.0000000E+00 -0.2868450E-07
  0.0000000E+00  0.0000000E+00  0.1257877E-06
  0.0000000E+00  0.0000000E+00  0.2889221E-05
  0.0000000E+00  0.0000000E+00 -0.1578574E-07
  0.0000000E+00  0.0000000E+00 -0.9102100E-05
  0.0000000E+00  0.0000000E+00 -0.1816712E-06
  0.0000000E+00  0.0000000E+00  0.3495874E-05
  0.0000000E+00  0.0000000E+00 -0.2461346E-04
  0.0000000E+00  0.0000000E+00  0.1881027E-06
  0.0000000E+00  0.0000000E+00 -0.6771544E-06
  0.0000000E+00  0.0000000E+00 -0.2923786E-05
  0.0000000E+00  0.0000000E+00  0.2403241E-06
  0.0000000E+00  0.0000000E+00 -0.4554328E-05
  0.0000000E+00  0.0000000E+00  0.5757063E-06
  0.0000000E+00  0.0000000E+00 -0.2607698E-05
  0.0000000E+00  0.0000000E+00 -0.1726639E-05
  0.0000000E+00  0.0000000E+00  0.4159229E-06
  0.0000000E+00  0.0000000E+00  0.8807975E-07
  0.0000000E+00  0.0000000E+00  0.8871375E-06
  0.0000000E+00  0.0000000E+00  0.6125344E-06
  0.0000000E+00  0.0000000E+00 -0.2006740E-05
  0.0000000E+00  0.0000000E+00 -0.1268813E-06
  0.0000000E+00  0.0000000E+00  0.5903293E-05
  0.0000000E+00  0.0000000E+00  0.6569228E-05
  0.0000000E+00  0.0000000E+00 -0.9907734E-06
  0.0000000E+00  0.0000000E+00  0.4272494E-06
  0.0000000E+00  0.0000000E+00 -0.2741210E-05
  0.0000000E+00  0.0000000E+00 -0.3148417E-06
  0.0000000E+00  0.0000000E+00 -0.2771594E-06
  0.0000000E+00  0.0000000E+00 -0.4632004E-06
  0.0000000E+00  0.0000000E+00  0.1191373E-05
  0.0000000E+00  0.0000000E+00 -0.1336613E-05
  0.0000000E+00  0.0000000E+00  0.7046227E-07
  0.0000000E+00  0.0000000E+00  0.8678670E-06
  0.0000000E+00  0.0000000E+00 -0.6518956E-05
  0.0000000E+00  0.0000000E+00  0.1597827E-05
  0.0000000E+00  0.0000000E+00  0.3827806E-07
  0.0000000E+00  0.0000000E+00  0.6384477E-06
  0.0000000E+00  0.0000000E+00  0.4757730E-05
  0.0000000E+00  0.0000000E+00 -0.1325811E-04
  0.0000000E+00  0.0000000E+00 -0.1612481E-06
  0.0000000E+00  0.0000000E+00  0.3652935E-05
  0.0000000E+00  0.0000000E+00  0.1066434E-05
  0.0000000E+00  0.0000000E+00  0.9391623E-05
  0.0000000E+00  0.0000000E+00 -0.1498640E-05
  0.0000000E+00  0.0000000E+00 -0.7197024E-05
  0.0000000E+00  0.0000000E+00 -0.1077296E-05
  0.0000000E+00  0.0000000E+00  0.1222319E-05
  0.0000000E+00  0.0000000E+00 -0.1662712E-05
  0.0000000E+00  0.0000000E+00 -0.7604974E-07
  0.0000000E+00  0.0000000E+00 -0.4287349E-05
  0.0000000E+00  0.0000000E+00  0.5748531E-06
  0.0000000E+00  0.0000000E+00 -0.1865991E-05
  0.0000000E+00  0.0000000E+00  0.5089721E-06
  0.0000000E+00  0.0000000E+00  0.1960441E-06
  0.0000000E+00  0.0000000E+00  0.4518770E-07
  0.0000000E+00  0.0000000E+00 -0.1155555E-06
  0.0000000E+00  0.0000000E+00  0.4249665E-06
  0.0000000E+00  0.0000000E+00 -0.1788616E-05
  0.0000000E+00  0.0000000E+00 -0.2087441E-06
  0.0000000E+00  0.0000000E+00 -0.4238630E-05
  0.0000000E+00  0.0000000E+00 -0.1841390E-06
  0.0000000E+00  0.0000000E+00 -0.3271183E-05
  0.0000000E+00  0.0000000E+00 -0.1197242E-05
  0.0000000E+00  0.0000000E+00 -0.3701799E-06
  0.0000000E+00  0.0000000E+00  0.1110265E-05
  0.0000000E+00  0.0000000E+00 -0.2483993E-06
  0.0000000E+00  0.0000000E+00 -0.8227349E-06
  0.0000000E+00  0.0000000E+00  0.8692904E-06
  0.0000000E+00  0.0000000E+00  0.8093111E-06
  0.0000000E+00  0.0000000E+00 -0.1105904E-04
  0.0000000E+00  0.0000000E+00 -0.3614585E-05
  0.0000000E+00  0.0000000E+00  0.7379012E-06
  0.0000000E+00  0.0000000E+00 -0.2180457E-08
  0.0000000E+00  0.0000000E+00  0.1894698E-05
  0.0000000E+00  0.0000000E+00 -0.8257273E-06
  0.0000000E+00  0.0000000E+00 -0.3041724E-06
  0.0000000E+00  0.0000000E+00  0.1650934E-06
  0.0000000E+00  0.0000000E+00 -0.3616427E-05
  0.0000000E+00  0.0000000E+00  0.1573434E-05
  0.0000000E+00  0.0000000E+00 -0.1847499E-05
  0.0000000E+00  0.0000000E+00 -0.9579421E-05
  0.0000000E+00  0.0000000E+00  0.2941802E-06
  0.0000000E+00  0.0000000E+00 -0.5562210E-06
  0.0000000E+00  0.0000000E+00 -0.2273172E-05
  0.0000000E+00  0.0000000E+00 -0.5200386E-06
  0.0000000E+00  0.0000000E+00  0.5028870E-06
  0.0000000E+00  0.0000000E+00 -0.3149378E-05
  0.0000000E+00  0.0000000E+00 -0.3418861E-05
  0.0000000E+00  0.0000000E+00  0.1232847E-05
  0.0000000E+00  0.0000000E+00  0.4372263E-05
  0.0000000E+00  0.0000000E+00  0.1991860E-05
  0.0000000E+00  0.0000000E+00 -0.9134154E-06
  0.0000000E+00  0.0000000E+00 -0.3236171E-06
  0.0000000E+00  0.0000000E+00 -0.2618067E-06
  0.0000000E+00  0.0000000E+00  0.1868616E-06
  0.0000000E+00  0.0000000E+00 -0.2043836E-06
  0.0000000E+00  0.0000000E+00  0.7922181E-07
  0.0000000E+00  0.0000000E+00 -0.1722552E-05
  0.0000000E+00  0.0000000E+00  0.3383629E-06
  0.0000000E+00  0.0000000E+00 -0.6374611E-06
  0.0000000E+00  0.0000000E+00 -0.6745721E-06
  0.0000000E+00  0.0000000E+00  0.2414096E-05
  0.0000000E+00  0.0000000E+00  0.2072713E-05
  0.0000000E+00  0.0000000E+00  0.2369768E-06
  0.0000000E+00  0.0000000E+00 -0.4221160E-06
  0.0000000E+00  0.0000000E+00 -0.1352482E-05
  0.0000000E+00  0.0000000E+00 -0.7458373E-06
  0.0000000E+00  0.0000000E+00  0.7101364E-05
  0.0000000E+00  0.0000000E+00 -0.8974421E-06
  0.0000000E+00  0.0000000E+00 -0.1662769E-04
  0.0000000E+00  0.0000000E+00  0.1962807E-05
  0.0000000E+00  0.0000000E+00 -0.8152950E-06
  0.0000000E+00  0.0000000E+00 -0.9888534E-05
  0.0000000E+00  0.0000000E+00  0.3291772E-05
  0.0000000E+00  0.0000000E+00  0.9385328E-06
  0.0000000E+00  0.0000000E+00  0.2967759E-06
  0.0000000E+00  0.0000000E+00  0.3856702E-06
  0.0000000E+00  0.0000000E+00  0.7835904E-06
  0.0000000E+00  0.0000000E+00  0.9884923E-06
  0.0000000E+00  0.0000000E+00 -0.2393702E-05
  0.0000000E+00  0.0000000E+00  0.6522278E-05
  0.0000000E+00  0.0000000E+00  0.8518197E-06
  0.0000000E+00  0.0000000E+00  0.7006558E-06
  0.0000000E+00  0.0000000E+00 -0.3285579E-06
  0.0000000E+00  0.0000000E+00 -0.7046016E-06
  0.0000000E+00  0.0000000E+00  0.1350553E-05
  0.0000000E+00  0.0000000E+00  0.2279891E-05
  0.0000000E+00  0.0000000E+00  0.1779678E-06
  0.0000000E+00  0.0000000E+00 -0.1725115E-06
  0.0000000E+00  0.0000000E+00  0.5316722E-06
  0.0000000E+00  0.0000000E+00 -0.4347832E-05
  0.0000000E+00  0.0000000E+00 -0.1019315E-05
  0.0000000E+00  0.0000000E+00 -0.3136037E-05
  0.0000000E+00  0.0000000E+00 -0.6192720E-06
  0.0000000E+00  0.0000000E+00 -0.9729644E-06
  0.0000000E+00  0.0000000E+00 -0.6002729E-06
  0.0000000E+00  0.0000000E+00  0.1873708E-05
  0.0000000E+00  0.0000000E+00 -0.1649199E-05
  0.0000000E+00  0.0000000E+00  0.7739788E-06
  0.0000000E+00  0.0000000E+00 -0.1535320E-05
  0.0000000E+00  0.0000000E+00 -0.7696938E-05
  0.0000000E+00  0.0000000E+00  0.1300261E-05
  0.0000000E+00  0.0000000E+00  0.1226097E-04
  0.0000000E+00  0.0000000E+00  0.5450117E-05
  0.0000000E+00  0.0000000E+00  0.1144377E-05
  0.0000000E+00  0.0000000E+00  0.3198511E-05
  0.0000000E+00  0.0000000E+00 -0.1004621E-04
  0.0000000E+00  0.0000000E+00 -0.3471695E-05
  0.0000000E+00  0.0000000E+00 -0.2638649E-05
  0.0000000E+00  0.0000000E+00 -0.4015012E-06
  0.0000000E+00  0.0000000E+00 -0.9015037E-06
  0.0000000E+00  0.0000000E+00  0.2494016E-06
  0.0000000E+00  0.0000000E+00 -0.2014394E-05
  0.0000000E+00  0.0000000E+00 -0.1129526E-05
  0.0000000E+00  0.0000000E+00  0.6809116E-06
  0.0000000E+00  0.0000000E+00  0.3869795E-05
  0.0000000E+00  0.0000000E+00  0.1488155E-06
  0.0000000E+00  0.0000000E+00  0.1595028E-06
  0.0000000E+00  0.0000000E+00 -0.6867750E-06
  0.0000000E+00  0.0000000E+00  0.1223118E-05
  0.0000000E+00  0.0000000E+00  0.7676155E-06
  0.0000000E+00  0.0000000E+00 -0.5636093E-06
  0.0000000E+00  0.0000000E+00  0.2855051E-06
  0.0000000E+00  0.0000000E+00 -0.3013624E-05
  0.0000000E+00  0.0000000E+00  0.3876864E-07
  0.0000000E+00  0.0000000E+00 -0.1170636E-06
  0.0000000E+00  0.0000000E+00  0.1156845E-05
  0.0000000E+00  0.0000000E+00  0.8231738E-07
  0.0000000E+00  0.0000000E+00  0.1215154E-06
  0.0000000E+00  0.0000000E+00 -0.7029931E-06
  0.0000000E+00  0.0000000E+00  0.1300600E-06
  0.0000000E+00  0.0000000E+00  0.2333853E-05
  0.0000000E+00  0.0000000E+00 -0.5463637E-05
  0.0000000E+00  0.0000000E+00 -0.1691491E-05
  0.0000000E+00  0.0000000E+00 -0.5355672E-06
  0.0000000E+00  0.0000000E+00 -0.6425302E-05
  0.0000000E+00  0.0000000E+00 -0.6174879E-05
  0.0000000E+00  0.0000000E+00  0.1366239E-06
  0.0000000E+00  0.0000000E+00 -0.7673194E-05
  0.0000000E+00  0.0000000E+00 -0.1681953E-06
  0.0000000E+00  0.0000000E+00 -0.7225298E-05
  0.0000000E+00  0.0000000E+00 -0.1444488E-04
  0.0000000E+00  0.0000000E+00  0.9003045E-06
  0.0000000E+00  0.0000000E+00  0.1268269E-05
  0.0000000E+00  0.0000000E+00  0.3370328E-06
  0.0000000E+00  0.0000000E+00  0.1316300E-05
  0.0000000E+00  0.0000000E+00  0.5307922E-07
  0.0000000E+00  0.0000000E+00 -0.1531764E-06
  0.0000000E+00  0.0000000E+00 -0.4164216E-06
  0.0000000E+00  0.0000000E+00  0.2753339E-05
  0.0000000E+00  0.0000000E+00 -0.4551683E-06
  0.0000000E+00  0.0000000E+00  0.2473096E-05
  0.0000000E+00  0.0000000E+00 -0.4590523E-05
  0.0000000E+00  0.0000000E+00  0.1076400E-04
  0.0000000E+00  0.0000000E+00 -0.6845941E-08
  0.0000000E+00  0.0000000E+00 -0.1109903E-05
  0.0000000E+00  0.0000000E+00 -0.1846727E-04
  0.0000000E+00  0.0000000E+00  0.6625138E-08
  0.0000000E+00  0.0000000E+00  0.5817353E-06
  0.0000000E+00  0.0000000E+00  0.1452914E-05
  0.0000000E+00  0.0000000E+00 -0.1273354E-04
  0.0000000E+00  0.0000000E+00 -0.6938822E-06
  0.0000000E+00  0.0000000E+00 -0.4071393E-06
  0.0000000E+00  0.0000000E+00 -0.1694571E-05
  0.0000000E+00  0.0000000E+00  0.8016588E-06
  0.0000000E+00  0.0000000E+00 -0.4679571E-05
  0.0000000E+00  0.0000000E+00 -0.2255265E-06
  0.0000000E+00  0.0000000E+00 -0.6808912E-06
  0.0000000E+00  0.0000000E+00  0.3182061E-05
  0.0000000E+00  0.0000000E+00 -0.6329378E-06
  0.0000000E+00  0.0000000E+00 -0.5180741E-05
  0.0000000E+00  0.0000000E+00 -0.6668308E-06
  0.0000000E+00  0.0000000E+00 -0.5108476E-06
  0.0000000E+00  0.0000000E+00 -0.1481395E-06
  0.0000000E+00  0.0000000E+00  0.5547008E-06
  0.0000000E+00  0.0000000E+00  0.4375632E-06
  0.0000000E+00  0.0000000E+00 -0.1365594E-05
  0.0000000E+00  0.0000000E+00 -0.9583389E-06
  0.0000000E+00  0.0000000E+00 -0.4990947E-06
  0.0000000E+00  0.0000000E+00 -0.9634678E-06
  0.0000000E+00  0.0000000E+00 -0.2791196E-06
  0.0000000E+00  0.0000000E+00 -0.3355665E-05
  0.0000000E+00  0.0000000E+00 -0.9958022E-06
  0.0000000E+00  0.0000000E+00 -0.2481636E-05
  0.0000000E+00  0.0000000E+00  0.1739317E-05
  0.0000000E+00  0.0000000E+00  0.1154845E-05
  0.0000000E+00  0.0000000E+00 -0.2158151E-05
  0.0000000E+00  0.0000000E+00  0.1095918E-05
  0.0000000E+00  0.0000000E+00  0.5549484E-07
  0.0000000E+00  0.0000000E+00 -0.9395255E-06
  0.0000000E+00  0.0000000E+00 -0.1572015E-05
  0.0000000E+00  0.0000000E+00 -0.1908748E-05
  0.0000000E+00  0.0000000E+00  0.5562464E-05
  0.0000000E+00  0.0000000E+00 -0.1132949E-05
  0.0000000E+00  0.0000000E+00  0.2990580E-05
  0.0000000E+00  0.0000000E+00  0.3632665E-06
  0.0000000E+00  0.0000000E+00 -0.2833578E-05
  0.0000000E+00  0.0000000E+00 -0.1011885E-05
  0.0000000E+00  0.0000000E+00 -0.8587365E-06
  0.0000000E+00  0.0000000E+00 -0.1464268E-05
  0.0000000E+00  0.0000000E+00 -0.6187057E-06
  0.0000000E+00  0.0000000E+00  0.4844227E-05
  0.0000000E+00  0.0000000E+00 -0.8500498E-06
  0.0000000E+00  0.0000000E+00  0.3317625E-06
  0.0000000E+00  0.0000000E+00  0.1915158E-06
  0.0000000E+00  0.0000000E+00  0.2741943E-05
  0.0000000E+00  0.0000000E+00  0.6250739E-06
  0.0000000E+00  0.0000000E+00  0.2579152E-06
  0.0000000E+00  0.0000000E+00  0.8550353E-07
  0.0000000E+00  0.0000000E+00 -0.4139271E-06
  0.0000000E+00  0.0000000E+00  0.7762378E-06
  0.0000000E+00  0.0000000E+00  0.5798245E-06
  0.0000000E+00  0.0000000E+00  0.1285650E-05
  0.0000000E+00  0.0000000E+00  0.4886243E-06
  0.0000000E+00  0.0000000E+00  0.1787765E-05
  0.0000000E+00  0.0000000E+00  0.5111160E-06
  0.0000000E+00  0.0000000E+00  0.1115502E-08
  0.0000000E+00  0.0000000E+00  0.2508905E-06
  0.0000000E+00  0.0000000E+00  0.1820580E-05
  0.0000000E+00  0.0000000E+00 -0.4228432E-07
  0.0000000E+00  0.0000000E+00 -0.1920319E-05
  0.0000000E+00  0.0000000E+00  0.3548200E-06
  0.0000000E+00  0.0000000E+00 -0.5959133E-06
  0.0000000E+00  0.0000000E+00 -0.1351922E-05
  0.0000000E+00  0.0000000E+00 -0.1442717E-05
  0.0000000E+00  0.0000000E+00  0.7085244E-06
  0.0000000E+00  0.0000000E+00  0.2739201E-05
  0.0000000E+00  0.0000000E+00 -0.7866187E-06
  0.0000000E+00  0.0000000E+00 -0.5045320E-05
  0.0000000E+00  0.0000000E+00 -0.1037473E-06
  0.0000000E+00  0.0000000E+00 -0.1500153E-06
  0.0000000E+00  0.0000000E+00  0.1708367E-05
  0.0000000E+00  0.0000000E+00 -0.2309519E-05
  0.0000000E+00  0.0000000E+00  0.4531451E-05
  0.0000000E+00  0.0000000E+00  0.9274016E-06
  0.0000000E+00  0.0000000E+00 -0.9888784E-06
  0.0000000E+00  0.0000000E+00 -0.1159310E-05
  0.0000000E+00  0.0000000E+00 -0.1034855E-04
  0.0000000E+00  0.0000000E+00  0.5940653E-05
  0.0000000E+00  0.0000000E+00  0.7238322E-05
  0.0000000E+00  0.0000000E+00  0.9681332E-06
  0.0000000E+00  0.0000000E+00  0.4948942E-05
  0.0000000E+00  0.0000000E+00  0.3661913E-05
  0.0000000E+00  0.0000000E+00  0.3657821E-05
  0.0000000E+00  0.0000000E+00 -0.4351754E-05
  0.0000000E+00  0.0000000E+00 -0.1585979E-05
  0.0000000E+00  0.0000000E+00 -0.3365797E-05
  0.0000000E+00  0.0000000E+00  0.2498990E-05
  0.0000000E+00  0.0000000E+00 -0.7836030E-08
  0.0000000E+00  0.0000000E+00  0.2309730E-06
  0.0000000E+00  0.0000000E+00  0.8193329E-06
  0.0000000E+00  0.0000000E+00  0.3744442E-05
  0.0000000E+00  0.0000000E+00  0.2227164E-05
  0.0000000E+00  0.0000000E+00 -0.2777504E-06
  0.0000000E+00  0.0000000E+00 -0.5145615E-05
  0.0000000E+00  0.0000000E+00 -0.4127077E-06
  0.0000000E+00  0.0000000E+00  0.4132375E-05
  0.0000000E+00  0.0000000E+00 -0.1427932E-06
  0.0000000E+00  0.0000000E+00  0.4309566E-06
  0.0000000E+00  0.0000000E+00 -0.3340486E-05
  0.0000000E+00  0.0000000E+00 -0.8566650E-05
  0.0000000E+00  0.0000000E+00  0.5297503E-06
  0.0000000E+00  0.0000000E+00 -0.6098706E-07
  0.0000000E+00  0.0000000E+00  0.8736064E-07
  0.0000000E+00  0.0000000E+00  0.8656048E-06
  0.0000000E+00  0.0000000E+00 -0.3272371E-07
  0.0000000E+00  0.0000000E+00 -0.8354750E-06
  0.0000000E+00  0.0000000E+00  0.1190913E-06
  0.0000000E+00  0.0000000E+00  0.7219086E-07
  0.0000000E+00  0.0000000E+00 -0.4360341E-06
  0.0000000E+00  0.0000000E+00 -0.9884777E-06
  0.0000000E+00  0.0000000E+00 -0.1638226E-05
  0.0000000E+00  0.0000000E+00 -0.1410736E-06
  0.0000000E+00  0.0000000E+00 -0.2942124E-06
  0.0000000E+00  0.0000000E+00 -0.1545879E-05
  0.0000000E+00  0.0000000E+00 -0.2913610E-06
  0.0000000E+00  0.0000000E+00 -0.1701770E-06
  0.0000000E+00  0.0000000E+00 -0.9911594E-06
  0.0000000E+00  0.0000000E+00 -0.1682743E-05
  0.0000000E+00  0.0000000E+00 -0.4899308E-07
  0.0000000E+00  0.0000000E+00 -0.2440977E-05
  0.0000000E+00  0.0000000E+00 -0.1546285E-05
  0.0000000E+00  0.0000000E+00 -0.4168277E-06
  0.0000000E+00  0.0000000E+00 -0.6925816E-06
  0.0000000E+00  0.0000000E+00 -0.6202858E-05
  0.0000000E+00  0.0000000E+00  0.1949364E-05
  0.0000000E+00  0.0000000E+00  0.3079394E-05
  0.0000000E+00  0.0000000E+00  0.7257911E-05
  0.0000000E+00  0.0000000E+00  0.4366967E-05
  0.0000000E+00  0.0000000E+00  0.4209425E-05
  0.0000000E+00  0.0000000E+00  0.1077138E-04
  0.0000000E+00  0.0000000E+00 -0.6925433E-05
  0.0000000E+00  0.0000000E+00 -0.1452930E-05
  0.0000000E+00  0.0000000E+00  0.2453480E-07
  0.0000000E+00  0.0000000E+00 -0.2844872E-05
  0.0000000E+00  0.0000000E+00  0.1015426E-05
  0.0000000E+00  0.0000000E+00  0.1501101E-05
  0.0000000E+00  0.0000000E+00 -0.3818869E-06
  0.0000000E+00  0.0000000E+00 -0.1379281E-04
  0.0000000E+00  0.0000000E+00  0.1986777E-05
  0.0000000E+00  0.0000000E+00 -0.7883090E-06
  0.0000000E+00  0.0000000E+00 -0.4236816E-05
  0.0000000E+00  0.0000000E+00  0.5765760E-05
  0.0000000E+00  0.0000000E+00  0.6506771E-05
  0.0000000E+00  0.0000000E+00 -0.1901898E-04
  0.0000000E+00  0.0000000E+00 -0.9683358E-06
  0.0000000E+00  0.0000000E+00 -0.1551682E-04
  0.0000000E+00  0.0000000E+00 -0.1085984E-04
  0.0000000E+00  0.0000000E+00 -0.2377009E-05
  0.0000000E+00  0.0000000E+00 -0.1812893E-05
  0.0000000E+00  0.0000000E+00 -0.5921597E-06
  0.0000000E+00  0.0000000E+00 -0.1329707E-05
  0.0000000E+00  0.0000000E+00 -0.8726436E-06
  0.0000000E+00  0.0000000E+00  0.6488423E-06
  0.0000000E+00  0.0000000E+00 -0.3502842E-06
  0.0000000E+00  0.0000000E+00 -0.4686387E-06
  0.0000000E+00  0.0000000E+00  0.6738463E-06
  0.0000000E+00  0.0000000E+00 -0.1734796E-05
  0.0000000E+00  0.0000000E+00 -0.3462809E-05
  0.0000000E+00  0.0000000E+00 -0.6357211E-06
  0.0000000E+00  0.0000000E+00 -0.5049988E-05
  0.0000000E+00  0.0000000E+00 -0.1270547E-05
  0.0000000E+00  0.0000000E+00  0.9053023E-06
  0.0000000E+00  0.0000000E+00  0.1640970E-05
  0.0000000E+00  0.0000000E+00 -0.5869930E-06
  0.0000000E+00  0.0000000E+00  0.1021030E-05
  0.0000000E+00  0.0000000E+00  0.7895744E-06
  0.0000000E+00  0.0000000E+00  0.1144906E-05
  0.0000000E+00  0.0000000E+00 -0.7862185E-06
  0.0000000E+00  0.0000000E+00  0.1910066E-06
  0.0000000E+00  0.0000000E+00  0.9998078E-07
  0.0000000E+00  0.0000000E+00 -0.7732110E-06
  0.0000000E+00  0.0000000E+00 -0.7476834E-06
  0.0000000E+00  0.0000000E+00 -0.6786308E-06
  0.0000000E+00  0.0000000E+00 -0.1331735E-05
  0.0000000E+00  0.0000000E+00 -0.3486676E-06
  0.0000000E+00  0.0000000E+00 -0.6075454E-06
  0.0000000E+00  0.0000000E+00 -0.3017622E-06
  0.0000000E+00  0.0000000E+00 -0.1406098E-05
  0.0000000E+00  0.0000000E+00 -0.1457789E-05
  0.0000000E+00  0.0000000E+00 -0.2142368E-05
  0.0000000E+00  0.0000000E+00 -0.2826947E-05
  0.0000000E+00  0.0000000E+00 -0.7035052E-06
  0.0000000E+00  0.0000000E+00 -0.6095783E-06
  0.0000000E+00  0.0000000E+00 -0.1105248E-05
  0.0000000E+00  0.0000000E+00 -0.2204650E-05
  0.0000000E+00  0.0000000E+00 -0.2063415E-05
  0.0000000E+00  0.0000000E+00  0.2983021E-05
  0.0000000E+00  0.0000000E+00 -0.2795094E-05
  0.0000000E+00  0.0000000E+00 -0.1131215E-05
  0.0000000E+00  0.0000000E+00  0.2592626E-05
  0.0000000E+00  0.0000000E+00 -0.4155802E-06